<?xml version="1.0" encoding="UTF-8"?>

<!-- generated on 06/22/20 14:59:50 by Eclipse SUMO GUI Version 1.4.0
<configuration xmlns:xsi="http://www.w3.org/2001/XMLSchema-instance" xsi:noNamespaceSchemaLocation="http://sumo.dlr.de/xsd/sumoConfiguration.xsd">

    <input>
        <net-file value="data/cross2x3.net.xml"/>
        <route-files value="data/cross.rou.xml"/>
    </input>

    <output>
        <tripinfo-output value="tripinfo.xml"/>
    </output>

    <time>
        <begin value="0"/>
    </time>

    <report>
        <verbose value="true"/>
        <no-step-log value="true"/>
    </report>

    <traci_server>
        <remote-port value="57264"/>
    </traci_server>

</configuration>
-->

<tripinfos xmlns:xsi="http://www.w3.org/2001/XMLSchema-instance" xsi:noNamespaceSchemaLocation="http://sumo.dlr.de/xsd/tripinfo_file.xsd">
    <tripinfo id="NS1.0" depart="0.00" departLane="n1i_0" departPos="5.10" departSpeed="0.00" departDelay="0.00" arrival="25.00" arrivalLane="s4o_0" arrivalPos="86.40" arrivalSpeed="14.26" duration="25.00" routeLength="294.90" waitingTime="0.00" waitingCount="0" stopTime="0.00" timeLoss="3.78" rerouteNo="1" devices="tripinfo_NS1.0 routing_NS1.0" vType="DEFAULT_VEHTYPE" speedFactor="1.03" vaporized=""/>
    <tripinfo id="NS2.0" depart="0.00" departLane="n2i_0" departPos="5.10" departSpeed="0.00" departDelay="0.00" arrival="25.00" arrivalLane="s5o_0" arrivalPos="86.40" arrivalSpeed="14.45" duration="25.00" routeLength="294.90" waitingTime="0.00" waitingCount="0" stopTime="0.00" timeLoss="4.06" rerouteNo="1" devices="tripinfo_NS2.0 routing_NS2.0" vType="DEFAULT_VEHTYPE" speedFactor="1.05" vaporized=""/>
    <tripinfo id="NS3.0" depart="0.00" departLane="n3i_0" departPos="5.10" departSpeed="0.00" departDelay="0.00" arrival="27.00" arrivalLane="s6o_0" arrivalPos="86.40" arrivalSpeed="11.93" duration="27.00" routeLength="294.90" waitingTime="0.00" waitingCount="0" stopTime="0.00" timeLoss="3.98" rerouteNo="1" devices="tripinfo_NS3.0 routing_NS3.0" vType="DEFAULT_VEHTYPE" speedFactor="0.94" vaporized=""/>
    <tripinfo id="NS1.1" depart="3.00" departLane="n1i_0" departPos="5.10" departSpeed="0.00" departDelay="-0.98" arrival="28.00" arrivalLane="s4o_0" arrivalPos="86.40" arrivalSpeed="13.26" duration="25.00" routeLength="294.90" waitingTime="0.00" waitingCount="0" stopTime="0.00" timeLoss="4.06" rerouteNo="1" devices="tripinfo_NS1.1 routing_NS1.1" vType="DEFAULT_VEHTYPE" speedFactor="1.03" vaporized=""/>
    <tripinfo id="SN2.0" depart="0.00" departLane="s5i_0" departPos="5.10" departSpeed="0.00" departDelay="0.00" arrival="29.00" arrivalLane="n2o_0" arrivalPos="86.40" arrivalSpeed="11.95" duration="29.00" routeLength="294.90" waitingTime="0.00" waitingCount="0" stopTime="0.00" timeLoss="4.25" rerouteNo="1" devices="tripinfo_SN2.0 routing_SN2.0" vType="DEFAULT_VEHTYPE" speedFactor="0.89" vaporized=""/>
    <tripinfo id="SN3.0" depart="0.00" departLane="s6i_0" departPos="5.10" departSpeed="0.00" departDelay="0.00" arrival="29.00" arrivalLane="n3o_0" arrivalPos="86.40" arrivalSpeed="11.50" duration="29.00" routeLength="294.90" waitingTime="0.00" waitingCount="0" stopTime="0.00" timeLoss="3.60" rerouteNo="1" devices="tripinfo_SN3.0 routing_SN3.0" vType="DEFAULT_VEHTYPE" speedFactor="0.86" vaporized=""/>
    <tripinfo id="SN1.0" depart="0.00" departLane="s4i_0" departPos="5.10" departSpeed="0.00" departDelay="0.00" arrival="30.00" arrivalLane="n1o_0" arrivalPos="86.40" arrivalSpeed="10.71" duration="30.00" routeLength="294.90" waitingTime="0.00" waitingCount="0" stopTime="0.00" timeLoss="3.95" rerouteNo="1" devices="tripinfo_SN1.0 routing_SN1.0" vType="DEFAULT_VEHTYPE" speedFactor="0.83" vaporized=""/>
    <tripinfo id="NS3.1" depart="5.00" departLane="n3i_0" departPos="5.10" departSpeed="0.00" departDelay="-0.07" arrival="31.00" arrivalLane="s6o_0" arrivalPos="86.40" arrivalSpeed="13.25" duration="26.00" routeLength="294.90" waitingTime="0.00" waitingCount="0" stopTime="0.00" timeLoss="3.82" rerouteNo="1" devices="tripinfo_NS3.1 routing_NS3.1" vType="DEFAULT_VEHTYPE" speedFactor="0.99" vaporized=""/>
    <tripinfo id="SN3.1" depart="7.00" departLane="s6i_0" departPos="5.10" departSpeed="0.00" departDelay="-0.61" arrival="31.00" arrivalLane="n3o_0" arrivalPos="86.40" arrivalSpeed="15.34" duration="24.00" routeLength="294.90" waitingTime="0.00" waitingCount="0" stopTime="0.00" timeLoss="4.95" rerouteNo="1" devices="tripinfo_SN3.1 routing_SN3.1" vType="DEFAULT_VEHTYPE" speedFactor="1.16" vaporized=""/>
    <tripinfo id="NS1.2" depart="7.00" departLane="n1i_0" departPos="5.10" departSpeed="0.00" departDelay="-0.96" arrival="34.00" arrivalLane="s4o_0" arrivalPos="86.40" arrivalSpeed="12.80" duration="27.00" routeLength="294.90" waitingTime="0.00" waitingCount="0" stopTime="0.00" timeLoss="3.59" rerouteNo="1" devices="tripinfo_NS1.2 routing_NS1.2" vType="DEFAULT_VEHTYPE" speedFactor="0.94" vaporized=""/>
    <tripinfo id="SN2.1" depart="7.00" departLane="s5i_0" departPos="5.10" departSpeed="0.00" departDelay="-0.84" arrival="34.00" arrivalLane="n2o_0" arrivalPos="86.40" arrivalSpeed="12.68" duration="27.00" routeLength="294.90" waitingTime="0.00" waitingCount="0" stopTime="0.00" timeLoss="4.00" rerouteNo="1" devices="tripinfo_SN2.1 routing_SN2.1" vType="DEFAULT_VEHTYPE" speedFactor="0.94" vaporized=""/>
    <tripinfo id="NS3.2" depart="10.00" departLane="n3i_0" departPos="5.10" departSpeed="0.00" departDelay="-0.14" arrival="36.00" arrivalLane="s6o_0" arrivalPos="86.40" arrivalSpeed="12.95" duration="26.00" routeLength="294.90" waitingTime="0.00" waitingCount="0" stopTime="0.00" timeLoss="3.76" rerouteNo="1" devices="tripinfo_NS3.2 routing_NS3.2" vType="DEFAULT_VEHTYPE" speedFactor="0.98" vaporized=""/>
    <tripinfo id="NS3.3" depart="15.00" departLane="n3i_0" departPos="5.10" departSpeed="0.00" departDelay="-0.21" arrival="38.00" arrivalLane="s6o_0" arrivalPos="86.40" arrivalSpeed="15.14" duration="23.00" routeLength="294.90" waitingTime="0.00" waitingCount="0" stopTime="0.00" timeLoss="4.59" rerouteNo="1" devices="tripinfo_NS3.3 routing_NS3.3" vType="DEFAULT_VEHTYPE" speedFactor="1.17" vaporized=""/>
    <tripinfo id="NS2.1" depart="12.00" departLane="n2i_0" departPos="5.10" departSpeed="0.00" departDelay="-0.29" arrival="39.00" arrivalLane="s5o_0" arrivalPos="86.40" arrivalSpeed="12.81" duration="27.00" routeLength="294.90" waitingTime="0.00" waitingCount="0" stopTime="0.00" timeLoss="3.66" rerouteNo="1" devices="tripinfo_NS2.1 routing_NS2.1" vType="DEFAULT_VEHTYPE" speedFactor="0.93" vaporized=""/>
    <tripinfo id="SN1.1" depart="11.00" departLane="s4i_0" departPos="5.10" departSpeed="0.00" departDelay="-0.01" arrival="40.00" arrivalLane="n1o_0" arrivalPos="86.40" arrivalSpeed="11.96" duration="29.00" routeLength="294.90" waitingTime="0.00" waitingCount="0" stopTime="0.00" timeLoss="4.37" rerouteNo="1" devices="tripinfo_SN1.1 routing_SN1.1" vType="DEFAULT_VEHTYPE" speedFactor="0.87" vaporized=""/>
    <tripinfo id="SN2.2" depart="15.00" departLane="s5i_0" departPos="5.10" departSpeed="0.00" departDelay="-0.69" arrival="40.00" arrivalLane="n2o_0" arrivalPos="86.40" arrivalSpeed="12.92" duration="25.00" routeLength="294.90" waitingTime="0.00" waitingCount="0" stopTime="0.00" timeLoss="3.38" rerouteNo="1" devices="tripinfo_SN2.2 routing_SN2.2" vType="DEFAULT_VEHTYPE" speedFactor="1.01" vaporized=""/>
    <tripinfo id="NS1.3" depart="11.00" departLane="n1i_0" departPos="5.10" departSpeed="0.00" departDelay="-0.95" arrival="41.00" arrivalLane="s4o_0" arrivalPos="86.40" arrivalSpeed="10.51" duration="30.00" routeLength="294.90" waitingTime="0.00" waitingCount="0" stopTime="0.00" timeLoss="4.17" rerouteNo="1" devices="tripinfo_NS1.3 routing_NS1.3" vType="DEFAULT_VEHTYPE" speedFactor="0.83" vaporized=""/>
    <tripinfo id="SN3.2" depart="15.00" departLane="s6i_0" departPos="5.10" departSpeed="0.00" departDelay="-0.22" arrival="41.00" arrivalLane="n3o_0" arrivalPos="86.40" arrivalSpeed="13.15" duration="26.00" routeLength="294.90" waitingTime="0.00" waitingCount="0" stopTime="0.00" timeLoss="4.06" rerouteNo="1" devices="tripinfo_SN3.2 routing_SN3.2" vType="DEFAULT_VEHTYPE" speedFactor="0.99" vaporized=""/>
    <tripinfo id="NS1.4" depart="15.00" departLane="n1i_0" departPos="5.10" departSpeed="0.00" departDelay="-0.93" arrival="43.00" arrivalLane="s4o_0" arrivalPos="86.40" arrivalSpeed="15.30" duration="28.00" routeLength="294.90" waitingTime="0.00" waitingCount="0" stopTime="0.00" timeLoss="9.01" rerouteNo="1" devices="tripinfo_NS1.4 routing_NS1.4" vType="DEFAULT_VEHTYPE" speedFactor="1.15" vaporized=""/>
    <tripinfo id="NS3.4" depart="20.00" departLane="n3i_0" departPos="5.10" departSpeed="0.00" departDelay="-0.28" arrival="44.00" arrivalLane="s6o_0" arrivalPos="86.40" arrivalSpeed="14.13" duration="24.00" routeLength="294.90" waitingTime="0.00" waitingCount="0" stopTime="0.00" timeLoss="4.19" rerouteNo="1" devices="tripinfo_NS3.4 routing_NS3.4" vType="DEFAULT_VEHTYPE" speedFactor="1.09" vaporized=""/>
    <tripinfo id="NS1.5" depart="19.00" departLane="n1i_0" departPos="5.10" departSpeed="0.00" departDelay="-0.91" arrival="47.00" arrivalLane="s4o_0" arrivalPos="86.40" arrivalSpeed="11.92" duration="28.00" routeLength="294.90" waitingTime="0.00" waitingCount="0" stopTime="0.00" timeLoss="3.52" rerouteNo="1" devices="tripinfo_NS1.5 routing_NS1.5" vType="DEFAULT_VEHTYPE" speedFactor="0.90" vaporized=""/>
    <tripinfo id="SN1.2" depart="22.00" departLane="s4i_0" departPos="5.10" departSpeed="0.00" departDelay="-0.02" arrival="47.00" arrivalLane="n1o_0" arrivalPos="86.40" arrivalSpeed="13.28" duration="25.00" routeLength="294.90" waitingTime="0.00" waitingCount="0" stopTime="0.00" timeLoss="3.95" rerouteNo="1" devices="tripinfo_SN1.2 routing_SN1.2" vType="DEFAULT_VEHTYPE" speedFactor="1.04" vaporized=""/>
    <tripinfo id="SN3.3" depart="22.00" departLane="s6i_0" departPos="5.10" departSpeed="0.00" departDelay="-0.83" arrival="47.00" arrivalLane="n3o_0" arrivalPos="86.40" arrivalSpeed="13.92" duration="25.00" routeLength="294.90" waitingTime="0.00" waitingCount="0" stopTime="0.00" timeLoss="3.83" rerouteNo="1" devices="tripinfo_SN3.3 routing_SN3.3" vType="DEFAULT_VEHTYPE" speedFactor="1.04" vaporized=""/>
    <tripinfo id="NS1.6" depart="23.00" departLane="n1i_0" departPos="5.10" departSpeed="0.00" departDelay="-0.89" arrival="49.00" arrivalLane="s4o_0" arrivalPos="86.40" arrivalSpeed="12.60" duration="26.00" routeLength="294.90" waitingTime="0.00" waitingCount="0" stopTime="0.00" timeLoss="4.31" rerouteNo="1" devices="tripinfo_NS1.6 routing_NS1.6" vType="DEFAULT_VEHTYPE" speedFactor="1.00" vaporized=""/>
    <tripinfo id="SN2.3" depart="23.00" departLane="s5i_0" departPos="5.10" departSpeed="0.00" departDelay="-0.53" arrival="51.00" arrivalLane="n2o_0" arrivalPos="86.40" arrivalSpeed="11.53" duration="28.00" routeLength="294.90" waitingTime="0.00" waitingCount="0" stopTime="0.00" timeLoss="3.53" rerouteNo="1" devices="tripinfo_SN2.3 routing_SN2.3" vType="DEFAULT_VEHTYPE" speedFactor="0.90" vaporized=""/>
    <tripinfo id="NS3.5" depart="25.00" departLane="n3i_0" departPos="5.10" departSpeed="0.00" departDelay="-0.35" arrival="51.00" arrivalLane="s6o_0" arrivalPos="86.40" arrivalSpeed="13.17" duration="26.00" routeLength="294.90" waitingTime="0.00" waitingCount="0" stopTime="0.00" timeLoss="4.40" rerouteNo="1" devices="tripinfo_NS3.5 routing_NS3.5" vType="DEFAULT_VEHTYPE" speedFactor="1.02" vaporized=""/>
    <tripinfo id="NS3.6" depart="30.00" departLane="n3i_0" departPos="5.10" departSpeed="0.00" departDelay="-0.42" arrival="54.00" arrivalLane="s6o_0" arrivalPos="86.40" arrivalSpeed="15.82" duration="24.00" routeLength="294.90" waitingTime="0.00" waitingCount="0" stopTime="0.00" timeLoss="5.40" rerouteNo="1" devices="tripinfo_NS3.6 routing_NS3.6" vType="DEFAULT_VEHTYPE" speedFactor="1.14" vaporized=""/>
    <tripinfo id="SN3.4" depart="30.00" departLane="s6i_0" departPos="5.10" departSpeed="0.00" departDelay="-0.44" arrival="55.00" arrivalLane="n3o_0" arrivalPos="86.40" arrivalSpeed="13.77" duration="25.00" routeLength="294.90" waitingTime="0.00" waitingCount="0" stopTime="0.00" timeLoss="3.67" rerouteNo="1" devices="tripinfo_SN3.4 routing_SN3.4" vType="DEFAULT_VEHTYPE" speedFactor="1.02" vaporized=""/>
    <tripinfo id="NS3.7" depart="35.00" departLane="n3i_0" departPos="5.10" departSpeed="0.00" departDelay="-0.49" arrival="59.00" arrivalLane="s6o_0" arrivalPos="86.40" arrivalSpeed="13.84" duration="24.00" routeLength="294.90" waitingTime="0.00" waitingCount="0" stopTime="0.00" timeLoss="3.37" rerouteNo="1" devices="tripinfo_NS3.7 routing_NS3.7" vType="DEFAULT_VEHTYPE" speedFactor="1.04" vaporized=""/>
    <tripinfo id="WE1.0" depart="0.00" departLane="w1i_0" departPos="5.10" departSpeed="0.00" departDelay="0.00" arrival="71.00" arrivalLane="e3o_0" arrivalPos="86.40" arrivalSpeed="14.26" duration="71.00" routeLength="394.90" waitingTime="35.00" waitingCount="1" stopTime="0.00" timeLoss="43.74" rerouteNo="1" devices="tripinfo_WE1.0 routing_WE1.0" vType="DEFAULT_VEHTYPE" speedFactor="1.06" vaporized=""/>
    <tripinfo id="WE1.1" depart="3.00" departLane="w1i_0" departPos="5.10" departSpeed="0.00" departDelay="-0.99" arrival="71.00" arrivalLane="e3o_1" arrivalPos="86.40" arrivalSpeed="15.14" duration="68.00" routeLength="394.90" waitingTime="31.00" waitingCount="1" stopTime="0.00" timeLoss="41.32" rerouteNo="1" devices="tripinfo_WE1.1 routing_WE1.1" vType="DEFAULT_VEHTYPE" speedFactor="1.09" vaporized=""/>
    <tripinfo id="WE2.0" depart="0.00" departLane="w4i_0" departPos="5.10" departSpeed="0.00" departDelay="0.00" arrival="72.00" arrivalLane="e6o_0" arrivalPos="86.40" arrivalSpeed="13.90" duration="72.00" routeLength="394.90" waitingTime="33.00" waitingCount="1" stopTime="0.00" timeLoss="43.09" rerouteNo="1" devices="tripinfo_WE2.0 routing_WE2.0" vType="DEFAULT_VEHTYPE" speedFactor="1.01" vaporized=""/>
    <tripinfo id="WE2.1" depart="4.00" departLane="w4i_0" departPos="5.10" departSpeed="0.00" departDelay="-0.17" arrival="72.00" arrivalLane="e6o_1" arrivalPos="86.40" arrivalSpeed="13.80" duration="68.00" routeLength="394.90" waitingTime="30.00" waitingCount="1" stopTime="0.00" timeLoss="40.18" rerouteNo="1" devices="tripinfo_WE2.1 routing_WE2.1" vType="DEFAULT_VEHTYPE" speedFactor="1.05" vaporized=""/>
    <tripinfo id="WE1.4" depart="15.00" departLane="w1i_0" departPos="5.10" departSpeed="0.00" departDelay="-0.94" arrival="73.00" arrivalLane="e3o_1" arrivalPos="86.40" arrivalSpeed="16.05" duration="58.00" routeLength="394.90" waitingTime="19.00" waitingCount="1" stopTime="0.00" timeLoss="32.91" rerouteNo="1" devices="tripinfo_WE1.4 routing_WE1.4" vType="DEFAULT_VEHTYPE" speedFactor="1.18" vaporized=""/>
    <tripinfo id="NS2.2" depart="24.00" departLane="n2i_0" departPos="5.10" departSpeed="0.00" departDelay="-0.57" arrival="73.00" arrivalLane="s5o_0" arrivalPos="86.40" arrivalSpeed="11.58" duration="49.00" routeLength="294.90" waitingTime="16.00" waitingCount="1" stopTime="0.00" timeLoss="23.57" rerouteNo="1" devices="tripinfo_NS2.2 routing_NS2.2" vType="DEFAULT_VEHTYPE" speedFactor="0.85" vaporized=""/>
    <tripinfo id="WE2.2" depart="8.00" departLane="w4i_0" departPos="5.10" departSpeed="0.00" departDelay="-0.33" arrival="74.00" arrivalLane="e6o_0" arrivalPos="86.40" arrivalSpeed="13.98" duration="66.00" routeLength="394.90" waitingTime="26.00" waitingCount="1" stopTime="0.00" timeLoss="37.93" rerouteNo="1" devices="tripinfo_WE2.2 routing_WE2.2" vType="DEFAULT_VEHTYPE" speedFactor="1.02" vaporized=""/>
    <tripinfo id="WE2.3" depart="12.00" departLane="w4i_0" departPos="5.10" departSpeed="0.00" departDelay="-0.50" arrival="74.00" arrivalLane="e6o_2" arrivalPos="86.40" arrivalSpeed="12.60" duration="62.00" routeLength="394.90" waitingTime="19.00" waitingCount="1" stopTime="0.00" timeLoss="31.47" rerouteNo="1" devices="tripinfo_WE2.3 routing_WE2.3" vType="DEFAULT_VEHTYPE" speedFactor="0.95" vaporized=""/>
    <tripinfo id="WE2.4" depart="16.00" departLane="w4i_0" departPos="5.10" departSpeed="0.00" departDelay="-0.66" arrival="74.00" arrivalLane="e6o_1" arrivalPos="86.40" arrivalSpeed="13.97" duration="58.00" routeLength="394.90" waitingTime="19.00" waitingCount="1" stopTime="0.00" timeLoss="29.61" rerouteNo="1" devices="tripinfo_WE2.4 routing_WE2.4" vType="DEFAULT_VEHTYPE" speedFactor="1.02" vaporized=""/>
    <tripinfo id="WE1.3" depart="11.00" departLane="w1i_0" departPos="5.10" departSpeed="0.00" departDelay="-0.96" arrival="75.00" arrivalLane="e3o_2" arrivalPos="86.40" arrivalSpeed="11.30" duration="64.00" routeLength="394.90" waitingTime="21.00" waitingCount="1" stopTime="0.00" timeLoss="31.54" rerouteNo="1" devices="tripinfo_WE1.3 routing_WE1.3" vType="DEFAULT_VEHTYPE" speedFactor="0.89" vaporized=""/>
    <tripinfo id="WE1.7" depart="27.00" departLane="w1i_0" departPos="5.10" departSpeed="0.00" departDelay="-0.90" arrival="75.00" arrivalLane="e3o_1" arrivalPos="86.40" arrivalSpeed="14.85" duration="48.00" routeLength="394.90" waitingTime="9.00" waitingCount="1" stopTime="0.00" timeLoss="21.11" rerouteNo="1" devices="tripinfo_WE1.7 routing_WE1.7" vType="DEFAULT_VEHTYPE" speedFactor="1.10" vaporized=""/>
    <tripinfo id="SN2.4" depart="31.00" departLane="s5i_0" departPos="5.10" departSpeed="0.00" departDelay="-0.37" arrival="75.00" arrivalLane="n2o_0" arrivalPos="86.40" arrivalSpeed="13.31" duration="44.00" routeLength="294.90" waitingTime="12.00" waitingCount="1" stopTime="0.00" timeLoss="22.51" rerouteNo="1" devices="tripinfo_SN2.4 routing_SN2.4" vType="DEFAULT_VEHTYPE" speedFactor="1.02" vaporized=""/>
    <tripinfo id="WE1.2" depart="7.00" departLane="w1i_0" departPos="5.10" departSpeed="0.00" departDelay="-0.97" arrival="77.00" arrivalLane="e3o_0" arrivalPos="86.40" arrivalSpeed="11.43" duration="70.00" routeLength="394.90" waitingTime="27.00" waitingCount="1" stopTime="0.00" timeLoss="37.45" rerouteNo="1" devices="tripinfo_WE1.2 routing_WE1.2" vType="DEFAULT_VEHTYPE" speedFactor="0.88" vaporized=""/>
    <tripinfo id="WE1.6" depart="23.00" departLane="w1i_0" departPos="5.10" departSpeed="0.00" departDelay="-0.92" arrival="77.00" arrivalLane="e3o_2" arrivalPos="86.40" arrivalSpeed="14.09" duration="54.00" routeLength="394.90" waitingTime="12.00" waitingCount="1" stopTime="0.00" timeLoss="26.98" rerouteNo="1" devices="tripinfo_WE1.6 routing_WE1.6" vType="DEFAULT_VEHTYPE" speedFactor="1.09" vaporized=""/>
    <tripinfo id="WE2.6" depart="24.00" departLane="w4i_0" departPos="5.10" departSpeed="0.00" departDelay="-1.00" arrival="78.00" arrivalLane="e6o_2" arrivalPos="86.40" arrivalSpeed="11.76" duration="54.00" routeLength="394.90" waitingTime="11.00" waitingCount="1" stopTime="0.00" timeLoss="20.69" rerouteNo="1" devices="tripinfo_WE2.6 routing_WE2.6" vType="DEFAULT_VEHTYPE" speedFactor="0.88" vaporized=""/>
    <tripinfo id="WE1.5" depart="19.00" departLane="w1i_0" departPos="5.10" departSpeed="0.00" departDelay="-0.93" arrival="79.00" arrivalLane="e3o_0" arrivalPos="86.40" arrivalSpeed="15.55" duration="60.00" routeLength="394.90" waitingTime="18.00" waitingCount="1" stopTime="0.00" timeLoss="35.16" rerouteNo="1" devices="tripinfo_WE1.5 routing_WE1.5" vType="DEFAULT_VEHTYPE" speedFactor="1.18" vaporized=""/>
    <tripinfo id="WE1.9" depart="35.00" departLane="w1i_0" departPos="5.10" departSpeed="0.00" departDelay="-0.87" arrival="79.00" arrivalLane="e3o_2" arrivalPos="86.40" arrivalSpeed="12.26" duration="44.00" routeLength="394.90" waitingTime="0.00" waitingCount="0" stopTime="0.00" timeLoss="11.89" rerouteNo="1" devices="tripinfo_WE1.9 routing_WE1.9" vType="DEFAULT_VEHTYPE" speedFactor="0.91" vaporized=""/>
    <tripinfo id="NS1.7" depart="27.00" departLane="n1i_0" departPos="5.10" departSpeed="0.00" departDelay="-0.87" arrival="80.00" arrivalLane="s4o_0" arrivalPos="86.40" arrivalSpeed="13.79" duration="53.00" routeLength="294.90" waitingTime="21.00" waitingCount="1" stopTime="0.00" timeLoss="31.18" rerouteNo="1" devices="tripinfo_NS1.7 routing_NS1.7" vType="DEFAULT_VEHTYPE" speedFactor="1.00" vaporized=""/>
    <tripinfo id="NS1.8" depart="31.00" departLane="n1i_0" departPos="5.10" departSpeed="0.00" departDelay="-0.86" arrival="80.00" arrivalLane="s4o_1" arrivalPos="86.40" arrivalSpeed="15.28" duration="49.00" routeLength="294.90" waitingTime="19.00" waitingCount="1" stopTime="0.00" timeLoss="29.23" rerouteNo="1" devices="tripinfo_NS1.8 routing_NS1.8" vType="DEFAULT_VEHTYPE" speedFactor="1.12" vaporized=""/>
    <tripinfo id="EW2.1" depart="4.00" departLane="e6i_0" departPos="5.10" departSpeed="0.00" departDelay="-0.00" arrival="82.00" arrivalLane="w4o_1" arrivalPos="86.40" arrivalSpeed="15.44" duration="78.00" routeLength="394.90" waitingTime="42.00" waitingCount="1" stopTime="0.00" timeLoss="52.18" rerouteNo="1" devices="tripinfo_EW2.1 routing_EW2.1" vType="DEFAULT_VEHTYPE" speedFactor="1.12" vaporized=""/>
    <tripinfo id="EW2.3" depart="12.00" departLane="e6i_0" departPos="5.10" departSpeed="0.00" departDelay="-0.01" arrival="82.00" arrivalLane="w4o_2" arrivalPos="86.40" arrivalSpeed="15.43" duration="70.00" routeLength="394.90" waitingTime="32.00" waitingCount="1" stopTime="0.00" timeLoss="44.40" rerouteNo="1" devices="tripinfo_EW2.3 routing_EW2.3" vType="DEFAULT_VEHTYPE" speedFactor="1.13" vaporized=""/>
    <tripinfo id="EW2.0" depart="0.00" departLane="e6i_0" departPos="5.10" departSpeed="0.00" departDelay="0.00" arrival="83.00" arrivalLane="w4o_0" arrivalPos="86.40" arrivalSpeed="14.41" duration="83.00" routeLength="394.90" waitingTime="45.00" waitingCount="1" stopTime="0.00" timeLoss="55.87" rerouteNo="1" devices="tripinfo_EW2.0 routing_EW2.0" vType="DEFAULT_VEHTYPE" speedFactor="1.08" vaporized=""/>
    <tripinfo id="WE2.5" depart="20.00" departLane="w4i_0" departPos="5.10" departSpeed="0.00" departDelay="-0.83" arrival="84.00" arrivalLane="e6o_0" arrivalPos="86.40" arrivalSpeed="13.73" duration="64.00" routeLength="394.90" waitingTime="21.00" waitingCount="2" stopTime="0.00" timeLoss="36.05" rerouteNo="1" devices="tripinfo_WE2.5 routing_WE2.5" vType="DEFAULT_VEHTYPE" speedFactor="1.03" vaporized=""/>
    <tripinfo id="EW2.2" depart="8.00" departLane="e6i_0" departPos="5.10" departSpeed="0.00" departDelay="-0.01" arrival="85.00" arrivalLane="w4o_0" arrivalPos="86.40" arrivalSpeed="13.28" duration="77.00" routeLength="394.90" waitingTime="37.00" waitingCount="1" stopTime="0.00" timeLoss="48.43" rerouteNo="1" devices="tripinfo_EW2.2 routing_EW2.2" vType="DEFAULT_VEHTYPE" speedFactor="1.01" vaporized=""/>
    <tripinfo id="EW2.4" depart="16.00" departLane="e6i_0" departPos="5.10" departSpeed="0.00" departDelay="-0.02" arrival="86.00" arrivalLane="w4o_1" arrivalPos="86.40" arrivalSpeed="12.53" duration="70.00" routeLength="394.90" waitingTime="30.00" waitingCount="1" stopTime="0.00" timeLoss="40.49" rerouteNo="1" devices="tripinfo_EW2.4 routing_EW2.4" vType="DEFAULT_VEHTYPE" speedFactor="0.97" vaporized=""/>
    <tripinfo id="WE2.7" depart="29.00" departLane="w4i_0" departPos="5.10" departSpeed="0.00" departDelay="-0.16" arrival="86.00" arrivalLane="e6o_1" arrivalPos="86.40" arrivalSpeed="12.15" duration="57.00" routeLength="394.90" waitingTime="12.00" waitingCount="2" stopTime="0.00" timeLoss="24.47" rerouteNo="1" devices="tripinfo_WE2.7 routing_WE2.7" vType="DEFAULT_VEHTYPE" speedFactor="0.90" vaporized=""/>
    <tripinfo id="WE2.9" depart="37.00" departLane="w4i_0" departPos="5.10" departSpeed="0.00" departDelay="-0.49" arrival="86.00" arrivalLane="e6o_2" arrivalPos="86.40" arrivalSpeed="12.58" duration="49.00" routeLength="394.90" waitingTime="4.00" waitingCount="1" stopTime="0.00" timeLoss="18.87" rerouteNo="1" devices="tripinfo_WE2.9 routing_WE2.9" vType="DEFAULT_VEHTYPE" speedFactor="0.97" vaporized=""/>
    <tripinfo id="SN1.4" depart="44.00" departLane="s4i_0" departPos="5.10" departSpeed="0.00" departDelay="-0.04" arrival="86.00" arrivalLane="n1o_1" arrivalPos="86.40" arrivalSpeed="15.34" duration="42.00" routeLength="294.90" waitingTime="12.00" waitingCount="1" stopTime="0.00" timeLoss="22.92" rerouteNo="1" devices="tripinfo_SN1.4 routing_SN1.4" vType="DEFAULT_VEHTYPE" speedFactor="1.15" vaporized=""/>
    <tripinfo id="WE2.8" depart="33.00" departLane="w4i_0" departPos="5.10" departSpeed="0.00" departDelay="-0.33" arrival="87.00" arrivalLane="e6o_0" arrivalPos="86.40" arrivalSpeed="12.70" duration="54.00" routeLength="394.90" waitingTime="7.00" waitingCount="2" stopTime="0.00" timeLoss="23.58" rerouteNo="1" devices="tripinfo_WE2.8 routing_WE2.8" vType="DEFAULT_VEHTYPE" speedFactor="0.94" vaporized=""/>
    <tripinfo id="SN3.5" depart="38.00" departLane="s6i_0" departPos="5.10" departSpeed="0.00" departDelay="-0.05" arrival="87.00" arrivalLane="n3o_0" arrivalPos="86.40" arrivalSpeed="13.67" duration="49.00" routeLength="294.90" waitingTime="17.00" waitingCount="1" stopTime="0.00" timeLoss="28.46" rerouteNo="1" devices="tripinfo_SN3.5 routing_SN3.5" vType="DEFAULT_VEHTYPE" speedFactor="1.06" vaporized=""/>
    <tripinfo id="WE2.10" depart="41.00" departLane="w4i_0" departPos="5.10" departSpeed="0.00" departDelay="-0.66" arrival="87.00" arrivalLane="e6o_1" arrivalPos="86.40" arrivalSpeed="13.03" duration="46.00" routeLength="394.90" waitingTime="4.00" waitingCount="1" stopTime="0.00" timeLoss="19.77" rerouteNo="1" devices="tripinfo_WE2.10 routing_WE2.10" vType="DEFAULT_VEHTYPE" speedFactor="1.09" vaporized=""/>
    <tripinfo id="WE2.11" depart="45.00" departLane="w4i_0" departPos="5.10" departSpeed="0.00" departDelay="-0.83" arrival="87.00" arrivalLane="e6o_2" arrivalPos="86.40" arrivalSpeed="12.78" duration="42.00" routeLength="394.90" waitingTime="0.00" waitingCount="0" stopTime="0.00" timeLoss="12.84" rerouteNo="1" devices="tripinfo_WE2.11 routing_WE2.11" vType="DEFAULT_VEHTYPE" speedFactor="0.98" vaporized=""/>
    <tripinfo id="EW2.5" depart="20.00" departLane="e6i_0" departPos="5.10" departSpeed="0.00" departDelay="-0.02" arrival="88.00" arrivalLane="w4o_0" arrivalPos="86.40" arrivalSpeed="13.07" duration="68.00" routeLength="394.90" waitingTime="28.00" waitingCount="1" stopTime="0.00" timeLoss="37.67" rerouteNo="1" devices="tripinfo_EW2.5 routing_EW2.5" vType="DEFAULT_VEHTYPE" speedFactor="0.96" vaporized=""/>
    <tripinfo id="EW2.7" depart="28.00" departLane="e6i_0" departPos="5.10" departSpeed="0.00" departDelay="-0.03" arrival="88.00" arrivalLane="w4o_1" arrivalPos="86.40" arrivalSpeed="12.65" duration="60.00" routeLength="394.90" waitingTime="17.00" waitingCount="1" stopTime="0.00" timeLoss="30.94" rerouteNo="1" devices="tripinfo_EW2.7 routing_EW2.7" vType="DEFAULT_VEHTYPE" speedFactor="1.00" vaporized=""/>
    <tripinfo id="EW2.6" depart="24.00" departLane="e6i_0" departPos="5.10" departSpeed="0.00" departDelay="-0.02" arrival="89.00" arrivalLane="w4o_2" arrivalPos="86.40" arrivalSpeed="11.68" duration="65.00" routeLength="394.90" waitingTime="21.00" waitingCount="1" stopTime="0.00" timeLoss="31.22" rerouteNo="1" devices="tripinfo_EW2.6 routing_EW2.6" vType="DEFAULT_VEHTYPE" speedFactor="0.85" vaporized=""/>
    <tripinfo id="WE2.13" depart="54.00" departLane="w4i_0" departPos="5.10" departSpeed="0.00" departDelay="-0.16" arrival="89.00" arrivalLane="e6o_1" arrivalPos="86.40" arrivalSpeed="14.49" duration="35.00" routeLength="394.90" waitingTime="0.00" waitingCount="0" stopTime="0.00" timeLoss="7.88" rerouteNo="1" devices="tripinfo_WE2.13 routing_WE2.13" vType="DEFAULT_VEHTYPE" speedFactor="1.07" vaporized=""/>
    <tripinfo id="EW2.8" depart="32.00" departLane="e6i_0" departPos="5.10" departSpeed="0.00" departDelay="-0.03" arrival="90.00" arrivalLane="w4o_0" arrivalPos="86.40" arrivalSpeed="13.45" duration="58.00" routeLength="394.90" waitingTime="18.00" waitingCount="1" stopTime="0.00" timeLoss="28.41" rerouteNo="1" devices="tripinfo_EW2.8 routing_EW2.8" vType="DEFAULT_VEHTYPE" speedFactor="0.99" vaporized=""/>
    <tripinfo id="EW2.10" depart="40.00" departLane="e6i_0" departPos="5.10" departSpeed="0.00" departDelay="-0.04" arrival="90.00" arrivalLane="w4o_1" arrivalPos="86.40" arrivalSpeed="13.27" duration="50.00" routeLength="394.90" waitingTime="9.00" waitingCount="1" stopTime="0.00" timeLoss="20.57" rerouteNo="1" devices="tripinfo_EW2.10 routing_EW2.10" vType="DEFAULT_VEHTYPE" speedFactor="0.98" vaporized=""/>
    <tripinfo id="EW1.3" depart="19.00" departLane="e3i_0" departPos="5.10" departSpeed="0.00" departDelay="-0.05" arrival="91.00" arrivalLane="w1o_1" arrivalPos="86.40" arrivalSpeed="14.27" duration="72.00" routeLength="394.90" waitingTime="27.00" waitingCount="2" stopTime="0.00" timeLoss="45.52" rerouteNo="1" devices="tripinfo_EW1.3 routing_EW1.3" vType="DEFAULT_VEHTYPE" speedFactor="1.10" vaporized=""/>
    <tripinfo id="EW2.9" depart="36.00" departLane="e6i_0" departPos="5.10" departSpeed="0.00" departDelay="-0.04" arrival="91.00" arrivalLane="w4o_2" arrivalPos="86.40" arrivalSpeed="14.11" duration="55.00" routeLength="394.90" waitingTime="12.00" waitingCount="1" stopTime="0.00" timeLoss="26.59" rerouteNo="1" devices="tripinfo_EW2.9 routing_EW2.9" vType="DEFAULT_VEHTYPE" speedFactor="1.02" vaporized=""/>
    <tripinfo id="WE2.12" depart="49.00" departLane="w4i_0" departPos="5.10" departSpeed="0.00" departDelay="-0.99" arrival="91.00" arrivalLane="e6o_0" arrivalPos="86.40" arrivalSpeed="10.65" duration="42.00" routeLength="394.90" waitingTime="0.00" waitingCount="0" stopTime="0.00" timeLoss="7.78" rerouteNo="1" devices="tripinfo_WE2.12 routing_WE2.12" vType="DEFAULT_VEHTYPE" speedFactor="0.83" vaporized=""/>
    <tripinfo id="EW1.0" depart="0.00" departLane="e3i_0" departPos="5.10" departSpeed="0.00" departDelay="0.00" arrival="92.00" arrivalLane="w1o_0" arrivalPos="86.40" arrivalSpeed="12.66" duration="92.00" routeLength="394.90" waitingTime="43.00" waitingCount="2" stopTime="0.00" timeLoss="61.39" rerouteNo="1" devices="tripinfo_EW1.0 routing_EW1.0" vType="DEFAULT_VEHTYPE" speedFactor="0.94" vaporized=""/>